ITEM: TIMESTEP
0
ITEM: NUMBER OF ATOMS
5460
ITEM: BOX BOUNDS pp pp pp
0.0000000000000000e+00 9.4373599999999996e+01
0.0000000000000000e+00 9.4373599999999996e+01
0.0000000000000000e+00 9.4373599999999996e+01
ITEM: ATOMS id mol type xs ys zs ix iy iz
1 1 1 0.36915 0.077834 0.882333 0 1 0
2 1 1 0.372598 0.0653007 0.872433 0 1 0
3 1 2 0.371057 0.08795 0.876936 0 1 0
4 1 2 0.358018 0.0775455 0.885661 0 1 0
5 1 2 0.375779 0.0775008 0.891874 0 1 0
6 1 2 0.36634 0.0662156 0.862682 0 1 0
7 1 2 0.383796 0.0658122 0.86936 0 1 0
8 1 1 0.369513 0.0509507 0.879603 0 1 0
9 1 1 0.373096 0.0381921 0.870002 0 1 0
10 1 2 0.358289 0.0504822 0.882589 0 1 0
11 1 2 0.375675 0.0502118 0.88943 0 1 0
12 1 2 0.36683 0.0387378 0.860227 0 1 0
13 1 2 0.384304 0.0386305 0.866956 0 1 0
14 1 1 0.370078 0.024113 0.87772 0 1 0
15 1 1 0.373582 0.0108528 0.86884 0 1 0
16 1 2 0.358867 0.0237376 0.880765 0 1 0
17 1 2 0.376295 0.023802 0.887535 0 1 0
18 1 2 0.367011 0.0106683 0.859254 0 1 0
19 1 2 0.384694 0.0112028 0.86545 0 1 0
20 1 1 0.370942 0.997371 0.877696 0 0 0
21 1 1 0.374013 0.9835 0.869621 0 0 0
22 1 2 0.359902 0.997281 0.88133 0 0 0
23 1 2 0.377599 0.997763 0.887216 0 0 0
24 1 2 0.366941 0.982644 0.860437 0 0 0
25 1 2 0.384924 0.983586 0.865616 0 0 0
26 1 1 0.371885 0.970674 0.87953 0 0 0
27 1 1 0.374218 0.956307 0.872123 0 0 0
28 1 2 0.36113 0.971001 0.883926 0 0 0
29 1 2 0.379207 0.971558 0.888512 0 0 0
30 1 2 0.36668 0.955154 0.863351 0 0 0
31 1 2 0.384907 0.955924 0.867576 0 0 0
32 1 1 0.372296 0.943978 0.882676 0 0 0
33 1 1 0.373899 0.929348 0.875596 0 0 0
34 1 2 0.361805 0.94473 0.887622 0 0 0
35 1 2 0.380126 0.944993 0.891206 0 0 0
36 1 2 0.365971 0.928187 0.867177 0 0 0
37 1 2 0.384373 0.928564 0.870619 0 0 0
38 1 1 0.372092 0.917288 0.886459 0 0 0
39 1 1 0.373651 0.90252 0.879648 0 0 0
40 1 2 0.361648 0.918141 0.891488 0 0 0
41 1 2 0.380025 0.918496 0.894867 0 0 0
42 1 2 0.365546 0.901112 0.871438 0 0 0
43 1 2 0.384019 0.901722 0.874456 0 0 0
44 1 1 0.372238 0.890702 0.890825 0 0 0
45 1 1 0.37411 0.875796 0.88442 0 0 0
46 1 2 0.361816 0.891441 0.895917 0 0 0
47 1 2 0.3802 0.892314 0.899138 0 0 0
48 1 2 0.366186 0.87407 0.876093 0 0 0
49 1 2 0.384588 0.874989 0.879453 0 0 0
50 1 1 0.372583 0.86427 0.89588 0 0 0
51 1 1 0.374761 0.84921 0.88995 0 0 0
52 1 2 0.362053 0.865035 0.900741 0 0 0
53 1 2 0.380337 0.866197 0.904321 0 0 0
54 1 2 0.367501 0.847362 0.881063 0 0 0
55 1 2 0.385588 0.848213 0.885843 0 0 0
56 1 1 0.372187 0.837993 0.901534 0 0 0
57 1 1 0.375998 0.822876 0.896657 0 0 0
58 1 2 0.361045 0.838336 0.904826 0 0 0
59 1 2 0.378568 0.840655 0.910877 0 0 0
60 1 2 0.369736 0.82002 0.887291 0 0 0
61 1 2 0.387199 0.822563 0.893569 0 0 0
62 1 1 0.373283 0.812091 0.908627 0 0 0
63 1 1 0.3795 0.797321 0.905423 0 0 0
64 1 2 0.361852 0.811212 0.910541 0 0 0
65 1 2 0.37806 0.816082 0.918443 0 0 0
66 1 2 0.374526 0.792882 0.895902 0 0 0
67 1 2 0.390867 0.798356 0.90323 0 0 0
68 1 1 0.377278 0.787236 0.918099 0 0 0
69 1 1 0.385735 0.773318 0.916727 0 0 0
70 1 2 0.365957 0.78487 0.919254 0 0 0
71 1 2 0.380612 0.792642 0.927833 0 0 0
72 1 2 0.382153 0.767366 0.907409 0 0 0
73 1 2 0.396971 0.775818 0.915115 0 0 0
74 1 1 0.384087 0.764148 0.930164 0 0 0
75 1 1 0.394234 0.75134 0.93034 0 0 0
76 1 2 0.373099 0.760465 0.931051 0 0 0
77 1 2 0.386229 0.77072 0.939508 0 0 0
78 1 2 0.391748 0.744191 0.921519 0 0 0
79 1 2 0.405135 0.755061 0.928785 0 0 0
80 1 1 0.393267 0.743254 0.944517 0 0 0
81 1 1 0.404274 0.731226 0.945591 0 0 0
82 1 2 0.382575 0.73888 0.945796 0 0 0
83 1 2 0.394965 0.75072 0.953261 0 0 0
84 1 2 0.402052 0.723178 0.937505 0 0 0
85 1 2 0.414872 0.735463 0.943397 0 0 0
86 1 1 0.404185 0.724392 0.960445 0 0 0
87 1 1 0.415123 0.712326 0.961764 0 0 0
88 1 2 0.393573 0.720262 0.962776 0 0 0
89 1 2 0.406493 0.73254 0.968406 0 0 0
90 1 2 0.412422 0.703841 0.954294 0 0 0
91 1 2 0.425652 0.716267 0.958814 0 0 0
92 1 1 0.415657 0.706342 0.976969 0 0 0
93 1 1 0.425868 0.693647 0.978206 0 0 0
94 1 2 0.404998 0.703022 0.980204 0 0 0
95 1 2 0.418983 0.714726 0.9843 0 0 0
96 1 2 0.422318 0.685182 0.971077 0 0 0
97 1 2 0.436499 0.696814 0.974734 0 0 0
98 1 1 0.426617 0.687946 0.99351 0 0 0
99 1 1 0.435724 0.674419 0.994515 0 0 0
100 1 2 0.415873 0.6856 0.997273 0 0 0
101 1 2 0.430975 0.696133 0.00051494 0 0 1
102 1 2 0.431328 0.666359 0.987387 0 0 0
103 1 2 0.446531 0.676679 0.990882 0 0 0
104 1 1 0.436188 0.668483 0.00973976 0 0 1
105 1 1 0.444057 0.654178 0.0103832 0 0 1
106 1 2 0.425321 0.66704 0.0136017 0 0 1
107 1 2 0.44134 0.676137 0.0168086 0 0 1
108 1 2 0.439221 0.646864 0.00275401 0 0 1
109 1 2 0.455128 0.655647 0.00716266 0 0 1
110 1 1 0.443496 0.647467 0.0252814 0 0 1
111 1 1 0.450304 0.632612 0.0253483 0 0 1
112 1 2 0.432407 0.646616 0.0286566 0 0 1
113 1 2 0.448897 0.654334 0.0329473 0 0 1
114 1 2 0.445456 0.626192 0.0169587 0 0 1
115 1 2 0.461613 0.633518 0.0228228 0 0 1
116 1 1 0.448466 0.624887 0.0396446 0 0 1
117 1 1 0.454669 0.609779 0.0389236 0 0 1
118 1 2 0.437165 0.624296 0.042297 0 0 1
119 1 2 0.453686 0.63091 0.0481049 0 0 1
120 1 2 0.449882 0.604148 0.0299528 0 0 1
121 1 2 0.466088 0.610378 0.0368437 0 0 1
122 1 1 0.452053 0.60118 0.0525788 0 0 1
123 1 1 0.45775 0.585929 0.0510297 0 0 1
124 1 2 0.440653 0.600851 0.054819 0 0 1
125 1 2 0.4572 0.606422 0.0615858 0 0 1
126 1 2 0.452944 0.581012 0.0416585 0 0 1
127 1 2 0.469219 0.586262 0.0491781 0 0 1
128 1 1 0.454618 0.57664 0.0641106 0 0 1
129 1 1 0.459915 0.561333 0.0618464 0 0 1
130 1 2 0.443171 0.576521 0.0661221 0 0 1
131 1 2 0.459725 0.581221 0.0734924 0 0 1
132 1 2 0.455027 0.556979 0.0522419 0 0 1
133 1 2 0.471399 0.561447 0.060062 0 0 1
134 1 1 0.45648 0.55157 0.0744983 0 0 1
135 1 1 0.461515 0.536264 0.0717186 0 0 1
136 1 2 0.445014 0.551587 0.0764044 0 0 1
137 1 2 0.461579 0.555683 0.084099 0 0 1
138 1 2 0.456523 0.532289 0.0620045 0 0 1
139 1 2 0.472995 0.536246 0.0699014 0 0 1
140 1 1 0.457958 0.526206 0.0841055 0 0 1
141 1 1 0.462904 0.510928 0.0810173 0 0 1
142 1 2 0.446485 0.526264 0.0859665 0 0 1
143 1 2 0.463039 0.530054 0.0938252 0 0 1
144 1 2 0.457918 0.507181 0.0712092 0 0 1
145 1 2 0.47439 0.510874 0.0792422 0 0 1
146 1 1 0.45924 0.500662 0.0932028 0 0 1
147 1 1 0.464171 0.485421 0.0899161 0 0 1
148 1 2 0.447754 0.50072 0.0949837 0 0 1
149 1 2 0.464259 0.504336 0.103022 0 0 1
150 1 2 0.459305 0.48186 0.0799793 0 0 1
151 1 2 0.475681 0.485354 0.0883008 0 0 1
152 1 1 0.460288 0.47498 0.101884 0 0 1
153 1 1 0.465232 0.459769 0.0984802 0 0 1
154 1 2 0.448774 0.475041 0.103473 0 0 1
155 1 2 0.465146 0.4785 0.111839 0 0 1
156 1 2 0.46054 0.45635 0.0884106 0 0 1
157 1 2 0.47677 0.459679 0.0970844 0 0 1
158 1 1 0.461089 0.449197 0.110246 0 0 1
159 1 1 0.466066 0.43401 0.106781 0 0 1
160 1 2 0.449547 0.449271 0.11161 0 0 1
161 1 2 0.465755 0.452599 0.120333 0 0 1
162 1 2 0.461504 0.430674 0.0966248 0 0 1
163 1 2 0.477621 0.433923 0.105533 0 0 1
164 1 1 0.461767 0.423357 0.118418 0 0 1
165 1 1 0.466771 0.408188 0.11491 0 0 1
166 1 2 0.450209 0.423432 0.119645 0 0 1
167 1 2 0.466317 0.426682 0.128583 0 0 1
168 1 2 0.462278 0.404899 0.104708 0 0 1
169 1 2 0.478334 0.408111 0.113743 0 0 1
170 1 1 0.462399 0.397486 0.126474 0 0 1
171 1 1 0.46747 0.382339 0.122976 0 0 1
172 1 2 0.450832 0.397532 0.127608 0 0 1
173 1 2 0.466855 0.400795 0.136687 0 0 1
174 1 2 0.463018 0.379034 0.112761 0 0 1
175 1 2 0.479037 0.382304 0.121838 0 0 1
176 1 1 0.463108 0.371627 0.134535 0 0 1
177 1 1 0.468259 0.356518 0.131103 0 0 1
178 1 2 0.451537 0.371574 0.135632 0 0 1
179 1 2 0.4675 0.374935 0.144775 0 0 1
180 1 2 0.46376 0.352808 0.121049 0 0 1
181 1 2 0.479847 0.356201 0.130264 0 0 1
182 1 2 0.46503 0.349118 0.139465 0 0 1
183 2 1 0.5957 0.816613 0.247515 0 -1 0
184 2 1 0.603411 0.825747 0.258636 0 -1 0
185 2 2 0.595754 0.805431 0.250687 0 -1 0
186 2 2 0.584645 0.820002 0.246339 0 -1 0
187 2 2 0.600912 0.817457 0.237161 0 -1 0
188 2 2 0.598238 0.824428 0.268961 0 -1 0
189 2 2 0.614333 0.821945 0.259793 0 -1 0
190 2 1 0.603514 0.841577 0.254544 0 -1 0
191 2 1 0.612012 0.850546 0.265251 0 -1 0
192 2 2 0.592596 0.845518 0.253952 0 -1 0
193 2 2 0.608173 0.842797 0.243966 0 -1 0
194 2 2 0.607396 0.849402 0.275857 0 -1 0
195 2 2 0.622896 0.846509 0.265828 0 -1 0
196 2 1 0.61232 0.866363 0.261119 0 -1 0
197 2 1 0.622115 0.874966 0.270982 0 -1 0
198 2 2 0.60155 0.870715 0.261509 0 -1 0
199 2 2 0.616032 0.867417 0.250155 0 -1 0
200 2 2 0.618359 0.874101 0.281947 0 -1 0
201 2 2 0.632789 0.870377 0.270672 0 -1 0
202 2 1 0.622886 0.890725 0.266695 0 -1 0
203 2 1 0.633873 0.898857 0.275669 0 -1 0
204 2 2 0.612415 0.89562 0.267908 0 -1 0
205 2 2 0.625757 0.891529 0.255461 0 -1 0
206 2 2 0.630974 0.898218 0.286907 0 -1 0
207 2 2 0.644238 0.893722 0.274535 0 -1 0
208 2 1 0.635121 0.91455 0.271234 0 -1 0
209 2 1 0.647095 0.922138 0.279389 0 -1 0
210 2 2 0.625018 0.919967 0.273151 0 -1 0
211 2 2 0.637235 0.915173 0.259822 0 -1 0
212 2 2 0.644912 0.921692 0.290797 0 -1 0
213 2 2 0.657082 0.916462 0.277618 0 -1 0
214 2 1 0.648906 0.93773 0.274786 0 -1 0
215 2 1 0.661523 0.944762 0.282456 0 -1 0
216 2 2 0.639158 0.943642 0.277045 0 -1 0
217 2 2 0.650619 0.938185 0.263299 0 -1 0
218 2 2 0.659665 0.944582 0.293928 0 -1 0
219 2 2 0.671126 0.938519 0.280481 0 -1 0
220 2 1 0.664093 0.960167 0.277595 0 -1 0
221 2 1 0.677223 0.966549 0.284964 0 -1 0
222 2 2 0.654737 0.966654 0.279931 0 -1 0
223 2 2 0.665644 0.960367 0.266077 0 -1 0
224 2 2 0.675473 0.966833 0.296451 0 -1 0
225 2 2 0.68635 0.959596 0.283109 0 -1 0
226 2 1 0.680829 0.981581 0.279629 0 -1 0
227 2 1 0.694716 0.987001 0.286353 0 -1 0
228 2 2 0.672122 0.988869 0.28211 0 -1 0
229 2 2 0.681979 0.981398 0.268064 0 -1 0
230 2 2 0.69344 0.987764 0.29788 0 -1 0
231 2 2 0.703141 0.979237 0.284395 0 -1 0
232 2 1 0.699347 0.00149691 0.280396 0 0 0
233 2 1 0.714189 0.00566962 0.285833 0 0 0
234 2 2 0.691603 0.00963185 0.283387 0 0 0
235 2 2 0.699529 0.00102856 0.268784 0 0 0
236 2 2 0.713999 0.00660034 0.297417 0 0 0
237 2 2 0.721716 0.997207 0.283222 0 -1 0
238 2 1 0.719418 0.0196956 0.2793 0 0 0
239 2 1 0.734897 0.0228967 0.283413 0 0 0
240 2 2 0.712575 0.0283957 0.282844 0 0 0
241 2 2 0.718569 0.0191364 0.267721 0 0 0
242 2 2 0.735764 0.0237871 0.294969 0 0 0
243 2 2 0.741636 0.0140059 0.28015 0 0 0
244 2 1 0.74033 0.0366359 0.276433 0 0 0
245 2 1 0.756104 0.0392415 0.279751 0 0 0
246 2 2 0.734009 0.0456544 0.280148 0 0 0
247 2 2 0.738912 0.0359308 0.264919 0 0 0
248 2 2 0.757534 0.040452 0.291222 0 0 0
249 2 2 0.762242 0.0299193 0.276509 0 0 0
250 2 1 0.761936 0.052441 0.272073 0 0 0
251 2 1 0.777942 0.0542509 0.274765 0 0 0
252 2 2 0.756247 0.061928 0.275639 0 0 0
253 2 2 0.760044 0.0514228 0.26065 0 0 0
254 2 2 0.77973 0.0567585 0.285972 0 0 0
255 2 2 0.783315 0.044162 0.272657 0 0 0
256 2 1 0.784579 0.0658605 0.265365 0 0 0
257 2 1 0.800654 0.0670777 0.268039 0 0 0
258 2 2 0.779454 0.0760767 0.267474 0 0 0
259 2 2 0.782695 0.0632925 0.254187 0 0 0
260 2 2 0.802493 0.0708222 0.278888 0 0 0
261 2 2 0.80548 0.0565312 0.26728 0 0 0
262 2 1 0.808105 0.0770458 0.257452 0 0 0
263 2 1 0.824269 0.0769542 0.259843 0 0 0
264 2 2 0.803968 0.0878404 0.258656 0 0 0
265 2 2 0.8058 0.0736298 0.246584 0 0 0
266 2 2 0.826532 0.0801999 0.270772 0 0 0
267 2 2 0.828238 0.0660962 0.258643 0 0 0
268 2 1 0.832292 0.0867714 0.249532 0 0 0
269 2 1 0.848393 0.0861571 0.252288 0 0 0
270 2 2 0.828507 0.0976856 0.250814 0 0 0
271 2 2 0.830092 0.0835909 0.238571 0 0 0
272 2 2 0.850457 0.0888694 0.2634 0 0 0
273 2 2 0.852143 0.0752698 0.250708 0 0 0
274 2 1 0.856894 0.0962604 0.242651 0 0 0
275 2 1 0.872884 0.09538 0.245944 0 0 0
276 2 2 0.853178 0.107159 0.244237 0 0 0
277 2 2 0.855041 0.0935404 0.231504 0 0 0
278 2 2 0.874538 0.0973703 0.257275 0 0 0
279 2 2 0.876663 0.0845974 0.243812 0 0 0
280 2 1 0.881763 0.106059 0.237315 0 0 0
281 2 1 0.897586 0.105043 0.241306 0 0 0
282 2 2 0.877917 0.116834 0.239368 0 0 0
283 2 2 0.880438 0.103996 0.225954 0 0 0
284 2 2 0.898657 0.106211 0.25282 0 0 0
285 2 2 0.901567 0.0944633 0.238603 0 0 0
286 2 1 0.906814 0.116377 0.233958 0 0 0
287 2 1 0.922366 0.115223 0.238899 0 0 0
288 2 2 0.902707 0.12695 0.236492 0 0 0
289 2 2 0.90622 0.115099 0.222421 0 0 0
290 2 2 0.922685 0.115799 0.250503 0 0 0
291 2 2 0.926586 0.10481 0.235922 0 0 0
292 2 1 0.931992 0.126932 0.232758 0 0 0
293 2 1 0.947171 0.125639 0.238726 0 0 0
294 2 2 0.927635 0.13736 0.235473 0 0 0
295 2 2 0.932227 0.126182 0.221162 0 0 0
296 2 2 0.946699 0.12589 0.250336 0 0 0
297 2 2 0.951612 0.115318 0.235749 0 0 0
298 2 1 0.957154 0.137522 0.233567 0 0 0
299 2 1 0.971925 0.136095 0.240457 0 0 0
300 2 2 0.952596 0.147867 0.236269 0 0 0
301 2 2 0.958145 0.137088 0.221995 0 0 0
302 2 2 0.970734 0.136107 0.252019 0 0 0
303 2 2 0.976559 0.125841 0.237545 0 0 0
304 2 1 0.982168 0.148094 0.23615 0 0 0
305 2 1 0.996562 0.146527 0.243765 0 0 0
306 2 2 0.977456 0.158371 0.238846 0 0 0
307 2 2 0.983772 0.147938 0.22464 0 0 0
308 2 2 0.994793 0.14637 0.255252 0 0 0
309 2 2 0.00133702 0.136318 0.240926 1 0 0
310 2 1 0.00699245 0.158585 0.240128 1 0 0
311 2 1 0.0210284 0.156947 0.248371 1 0 0
312 2 2 0.00214348 0.168822 0.242732 1 0 0
313 2 2 0.00913333 0.158589 0.228704 1 0 0
314 2 2 0.0187657 0.156726 0.259769 1 0 0
315 2 2 0.0259159 0.146751 0.245678 1 0 0
316 2 1 0.0315988 0.169021 0.245226 1 0 0
317 2 1 0.0453547 0.167301 0.253907 1 0 0
318 2 2 0.0266787 0.179243 0.247753 1 0 0
319 2 2 0.0341295 0.169125 0.233882 1 0 0
320 2 2 0.0427491 0.167126 0.265233 1 0 0
321 2 2 0.0502525 0.157067 0.251383 1 0 0
322 2 1 0.056082 0.179301 0.251025 1 0 0
323 2 1 0.0696638 0.177477 0.259955 1 0 0
324 2 2 0.0511845 0.189554 0.253474 1 0 0
325 2 2 0.0588385 0.179415 0.239734 1 0 0
326 2 2 0.0668645 0.17734 0.271235 1 0 0
327 2 2 0.0745241 0.167204 0.257521 1 0 0
328 2 1 0.0805236 0.189394 0.257217 1 0 0
329 2 1 0.0940025 0.187458 0.266275 1 0 0
330 2 2 0.0756794 0.19968 0.25963 1 0 0
331 2 2 0.0833966 0.189508 0.245955 1 0 0
332 2 2 0.0910985 0.187356 0.277529 1 0 0
333 2 2 0.0987941 0.17714 0.263891 1 0 0
334 2 1 0.104986 0.199277 0.26361 1 0 0
335 2 1 0.118351 0.197282 0.27282 1 0 0
336 2 2 0.100202 0.209614 0.26592 1 0 0
337 2 2 0.107984 0.199314 0.25238 1 0 0
338 2 2 0.115347 0.197356 0.284048 1 0 0
339 2 2 0.123035 0.186877 0.270609 1 0 0
340 2 1 0.129509 0.208925 0.270105 1 0 0
341 2 1 0.142808 0.206803 0.279381 1 0 0
342 2 2 0.12487 0.219354 0.2723 1 0 0
343 2 2 0.132551 0.208814 0.258887 1 0 0
344 2 2 0.139796 0.207161 0.290601 1 0 0
345 2 2 0.14725 0.196252 0.277369 1 0 0
346 2 1 0.154246 0.218115 0.276454 1 0 0
347 2 1 0.167585 0.215699 0.285604 1 0 0
348 2 2 0.149914 0.228684 0.278603 1 0 0
349 2 2 0.15717 0.217823 0.265208 1 0 0
350 2 2 0.164718 0.216279 0.296852 1 0 0
351 2 2 0.171679 0.204994 0.28367 1 0 0
352 2 1 0.17932 0.226624 0.282391 1 0 0
353 2 1 0.19273 0.223914 0.291353 1 0 0
354 2 2 0.175334 0.237339 0.284492 1 0 0
355 2 2 0.182056 0.226136 0.271105 1 0 0
356 2 2 0.190043 0.224613 0.30264 1 0 0
357 2 2 0.196543 0.213108 0.289408 1 0 0
358 2 1 0.204655 0.23456 0.287914 1 0 0
359 2 1 0.218088 0.231715 0.296751 1 0 0
360 2 2 0.200938 0.245383 0.289948 1 0 0
361 2 2 0.207307 0.23392 0.276616 1 0 0
362 2 2 0.215822 0.232635 0.308114 1 0 0
363 2 2 0.222191 0.221037 0.294695 1 0 0
364 2 2 0.226417 0.23937 0.294083 1 0 0
365 3 1 0.120966 0.52145 0.363485 1 0 0
366 3 1 0.114865 0.509624 0.354017 1 0 0
367 3 2 0.131759 0.52419 0.360155 1 0 0
368 3 2 0.114415 0.531031 0.362849 1 0 0
369 3 2 0.121361 0.518056 0.374595 1 0 0
370 3 2 0.114548 0.513308 0.342998 1 0 0
371 3 2 0.121959 0.500422 0.354325 1 0 0
372 3 1 0.0998746 0.505149 0.358753 1 0 0
373 3 1 0.0937016 0.493196 0.349437 1 0 0
374 3 2 0.0928228 0.51438 0.35837 1 0 0
375 3 2 0.100231 0.5016 0.369815 1 0 0
376 3 2 0.0937207 0.496552 0.338309 1 0 0
377 3 2 0.100449 0.483763 0.350206 1 0 0
378 3 1 0.0784466 0.489426 0.353938 1 0 0
379 3 1 0.0718312 0.477556 0.344829 1 0 0
380 3 2 0.071822 0.498951 0.353246 1 0 0
381 3 2 0.0784436 0.4861 0.365075 1 0 0
382 3 2 0.0725161 0.480433 0.333588 1 0 0
383 3 2 0.0778288 0.467704 0.346264 1 0 0
384 3 1 0.0561685 0.475157 0.348869 1 0 0
385 3 1 0.0488926 0.463547 0.339939 1 0 0
386 3 2 0.0503676 0.485147 0.347589 1 0 0
387 3 2 0.0554887 0.472289 0.360112 1 0 0
388 3 2 0.0501635 0.465956 0.32864 1 0 0
389 3 2 0.0539948 0.453291 0.341909 1 0 0
390 3 1 0.0329711 0.462624 0.343547 1 0 0
391 3 1 0.0249825 0.451395 0.334738 1 0 0
392 3 2 0.0280909 0.473023 0.341772 1 0 0
393 3 2 0.0317413 0.460217 0.354851 1 0 0
394 3 2 0.0268166 0.453283 0.323417 1 0 0
395 3 2 0.0290966 0.44081 0.337211 1 0 0
396 3 1 0.00893365 0.451988 0.337823 1 0 0
397 3 1 0.000273987 0.441085 0.329229 1 0 0
398 3 2 0.00500852 0.462669 0.335458 1 0 0
399 3 2 0.00718005 0.450196 0.349173 1 0 0
400 3 2 0.0023768 0.442479 0.317883 1 0 0
401 3 2 0.00361993 0.430326 0.332084 1 0 0
402 3 1 0.984265 0.442867 0.332073 0 0 0
403 3 1 0.975 0.431999 0.324076 0 0 0
404 3 2 0.981029 0.453613 0.329048 0 0 0
405 3 2 0.982333 0.441865 0.343491 0 0 0
406 3 2 0.977005 0.432766 0.312653 0 0 0
407 3 2 0.977911 0.421245 0.327386 0 0 0
408 3 1 0.959114 0.434589 0.327045 0 0 0
409 3 1 0.949287 0.423453 0.320141 0 0 0
410 3 2 0.956186 0.445177 0.323249 0 0 0
411 3 2 0.957386 0.434562 0.338538 0 0 0
412 3 2 0.9508 0.42346 0.308617 0 0 0
413 3 2 0.952118 0.412856 0.323983 0 0 0
414 3 1 0.933602 0.426574 0.323646 0 0 0
415 3 1 0.923238 0.415158 0.318149 0 0 0
416 3 2 0.930685 0.436902 0.319184 0 0 0
417 3 2 0.932371 0.427456 0.33517 0 0 0
418 3 2 0.924123 0.414267 0.306594 0 0 0
419 3 2 0.926038 0.404825 0.322674 0 0 0
420 3 1 0.907864 0.418977 0.322259 0 0 0
421 3 1 0.896751 0.407954 0.317461 0 0 0
422 3 2 0.90519 0.429324 0.317689 0 0 0
423 3 2 0.907235 0.42013 0.333807 0 0 0
424 3 2 0.897403 0.406445 0.305955 0 0 0
425 3 2 0.898986 0.397703 0.322462 0 0 0
426 3 1 0.881706 0.412961 0.321522 0 0 0
427 3 1 0.869872 0.402346 0.317642 0 0 0
428 3 2 0.879572 0.423109 0.316274 0 0 0
429 3 2 0.881354 0.414948 0.332969 0 0 0
430 3 2 0.870412 0.399786 0.306317 0 0 0
431 3 2 0.871421 0.392446 0.323533 0 0 0
432 3 1 0.855192 0.408684 0.321153 0 0 0
433 3 1 0.842749 0.398405 0.318471 0 0 0
434 3 2 0.853614 0.418295 0.314811 0 0 0
435 3 2 0.855031 0.411938 0.332309 0 0 0
436 3 2 0.843029 0.394651 0.307474 0 0 0
437 3 2 0.843844 0.3891 0.325349 0 0 0
438 3 1 0.828436 0.405804 0.321385 0 0 0
439 3 1 0.815568 0.395811 0.319989 0 0 0
440 3 2 0.827187 0.4147 0.31401 0 0 0
441 3 2 0.82857 0.410287 0.332108 0 0 0
442 3 2 0.815584 0.390865 0.309471 0 0 0
443 3 2 0.816421 0.387277 0.327833 0 0 0
444 3 1 0.801546 0.403963 0.322179 0 0 0
445 3 1 0.788428 0.394205 0.322081 0 0 0
446 3 2 0.800453 0.411966 0.313821 0 0 0
447 3 2 0.801936 0.409651 0.332307 0 0 0
448 3 2 0.788273 0.387951 0.312285 0 0 0
449 3 2 0.789121 0.386684 0.330915 0 0 0
450 3 1 0.774583 0.402836 0.323284 0 0 0
451 3 1 0.761259 0.393348 0.323215 0 0 0
452 3 2 0.773963 0.410428 0.314506 0 0 0
453 3 2 0.774808 0.409039 0.333111 0 0 0
454 3 2 0.760953 0.387025 0.313467 0 0 0
455 3 2 0.761848 0.385904 0.332122 0 0 0
456 3 1 0.747577 0.402235 0.32443 0 0 0
457 3 1 0.734205 0.39294 0.32604 0 0 0
458 3 2 0.746499 0.409068 0.315089 0 0 0
459 3 2 0.748448 0.409221 0.333678 0 0 0
460 3 2 0.732759 0.386378 0.316556 0 0 0
461 3 2 0.735676 0.38572 0.335029 0 0 0
462 3 1 0.720852 0.402046 0.328582 0 0 0
463 3 1 0.707769 0.393066 0.332597 0 0 0
464 3 2 0.718543 0.40838 0.319114 0 0 0
465 3 2 0.723022 0.409512 0.337222 0 0 0
466 3 2 0.704878 0.386066 0.32378 0 0 0
467 3 2 0.710447 0.386287 0.341651 0 0 0
468 3 1 0.695061 0.402565 0.336579 0 0 0
469 3 1 0.68255 0.394166 0.342955 0 0 0
470 3 2 0.691503 0.408433 0.327199 0 0 0
471 3 2 0.698562 0.410433 0.344385 0 0 0
472 3 2 0.678442 0.386604 0.335143 0 0 0
473 3 2 0.686295 0.388016 0.352079 0 0 0
474 3 1 0.670621 0.404262 0.347775 0 0 0
475 3 1 0.658431 0.396618 0.355557 0 0 0
476 3 2 0.6664 0.409889 0.338522 0 0 0
477 3 2 0.675103 0.412314 0.354859 0 0 0
478 3 2 0.653563 0.388749 0.348523 0 0 0
479 3 2 0.662679 0.390894 0.364738 0 0 0
480 3 1 0.64714 0.407343 0.360564 0 0 0
481 3 1 0.634963 0.400439 0.369018 0 0 0
482 3 2 0.642739 0.412847 0.351321 0 0 0
483 3 2 0.652236 0.41543 0.367177 0 0 0
484 3 2 0.629591 0.392515 0.362427 0 0 0
485 3 2 0.639302 0.394889 0.378263 0 0 0
486 3 1 0.624213 0.411736 0.373953 0 0 0
487 3 1 0.612002 0.405526 0.382882 0 0 0
488 3 2 0.61979 0.417132 0.364657 0 0 0
489 3 2 0.629772 0.41981 0.3802 0 0 0
490 3 2 0.606181 0.397634 0.376643 0 0 0
491 3 2 0.616367 0.400067 0.392169 0 0 0
492 3 1 0.601791 0.417331 0.387767 0 0 0
493 3 1 0.589551 0.411769 0.39708 0 0 0
494 3 2 0.597382 0.422685 0.37844 0 0 0
495 3 2 0.607783 0.425317 0.393718 0 0 0
496 3 2 0.58323 0.404073 0.391088 0 0 0
497 3 2 0.593909 0.406224 0.406318 0 0 0
498 3 1 0.58001 0.424065 0.402096 0 0 0
499 3 1 0.567747 0.419142 0.41173 0 0 0
500 3 2 0.575644 0.429568 0.392836 0 0 0
501 3 2 0.586511 0.431792 0.407853 0 0 0
502 3 2 0.560776 0.411925 0.405863 0 0 0
503 3 2 0.572038 0.413227 0.420768 0 0 0
504 3 1 0.559146 0.431934 0.417186 0 0 0
505 3 1 0.546894 0.427643 0.427128 0 0 0
506 3 2 0.554848 0.437822 0.408134 0 0 0
507 3 2 0.566281 0.439163 0.422837 0 0 0
508 3 2 0.539292 0.421005 0.421362 0 0 0
509 3 2 0.551066 0.421287 0.435918 0 0 0
510 3 1 0.539317 0.440853 0.433082 0 0 0
511 3 1 0.52714 0.437128 0.443327 0 0 0
512 3 2 0.535122 0.447189 0.424287 0 0 0
513 3 2 0.547074 0.447496 0.438631 0 0 0
514 3 2 0.519011 0.431006 0.437711 0 0 0
515 3 2 0.531217 0.430417 0.451896 0 0 0
516 3 1 0.520477 0.450634 0.4497 0 0 0
517 3 1 0.508659 0.447308 0.46048 0 0 0
518 3 2 0.516166 0.45724 0.441164 0 0 0
519 3 2 0.52877 0.456869 0.454939 0 0 0
520 3 2 0.50012 0.4414 0.455257 0 0 0
521 3 2 0.51293 0.440486 0.468865 0 0 0
522 3 1 0.502647 0.46098 0.467141 0 0 0
523 3 1 0.491561 0.45782 0.478723 0 0 0
524 3 2 0.49787 0.467591 0.45886 0 0 0
525 3 2 0.511356 0.46712 0.471781 0 0 0
526 3 2 0.482674 0.451886 0.474152 0 0 0
527 3 2 0.496382 0.451044 0.486843 0 0 0
528 3 1 0.486036 0.471528 0.485724 0 0 0
529 3 1 0.476083 0.468344 0.498294 0 0 0
530 3 2 0.480456 0.477991 0.477839 0 0 0
531 3 2 0.495062 0.477796 0.489509 0 0 0
532 3 2 0.466787 0.462472 0.494527 0 0 0
533 3 2 0.481598 0.461498 0.505896 0 0 0
534 3 1 0.471295 0.48201 0.505887 0 0 0
535 3 1 0.461909 0.478763 0.518872 0 0 0
536 3 2 0.465468 0.488773 0.498444 0 0 0
537 3 2 0.480657 0.487983 0.50932 0 0 0
538 3 2 0.452348 0.473135 0.515408 0 0 0
539 3 2 0.467617 0.471668 0.526095 0 0 0
540 3 1 0.457682 0.492361 0.526903 0 0 0
541 3 1 0.448133 0.48912 0.539743 0 0 0
542 3 2 0.452133 0.499589 0.519688 0 0 0
543 3 2 0.467244 0.497873 0.530547 0 0 0
544 3 2 0.438521 0.483491 0.536424 0 0 0
545 3 2 0.453721 0.48247 0.547466 0 0 0
546 3 2 0.444939 0.498959 0.545042 0 0 0
547 4 1 0.213353 0.322005 0.697504 0 0 0
548 4 1 0.224614 0.311178 0.702258 0 0 0
549 4 2 0.210549 0.320322 0.68635 0 0 0
550 4 2 0.203681 0.320969 0.703866 0 0 0
551 4 2 0.217331 0.332867 0.698637 0 0 0
552 4 2 0.220485 0.300427 0.700696 0 0 0
553 4 2 0.234028 0.312239 0.695525 0 0 0
554 4 1 0.228824 0.31321 0.717928 0 0 0
555 4 1 0.240099 0.302353 0.722656 0 0 0
556 4 2 0.219387 0.312151 0.72463 0 0 0
557 4 2 0.232934 0.323971 0.719476 0 0 0
558 4 2 0.236017 0.291593 0.721024 0 0 0
559 4 2 0.24958 0.303465 0.716025 0 0 0
560 4 1 0.244186 0.304275 0.738366 0 0 0
561 4 1 0.255389 0.293358 0.743114 0 0 0
562 4 2 0.234679 0.303208 0.744968 0 0 0
563 4 2 0.248309 0.315014 0.740034 0 0 0
564 4 2 0.251508 0.282624 0.740915 0 0 0
565 4 2 0.2651 0.294809 0.736895 0 0 0
566 4 1 0.258831 0.294721 0.759035 0 0 0
567 4 1 0.269917 0.283708 0.763829 0 0 0
568 4 2 0.249085 0.293337 0.765216 0 0 0
569 4 2 0.262794 0.30542 0.76125 0 0 0
570 4 2 0.266094 0.273018 0.761343 0 0 0
571 4 2 0.279768 0.285291 0.757867 0 0 0
572 4 1 0.272997 0.284755 0.779846 0 0 0
573 4 1 0.28407 0.27372 0.784624 0 0 0
574 4 2 0.263136 0.283177 0.785792 0 0 0
575 4 2 0.276838 0.295432 0.782365 0 0 0
576 4 2 0.280317 0.263046 0.781967 0 0 0
577 4 2 0.293971 0.275413 0.778776 0 0 0
578 4 1 0.287019 0.274593 0.800678 0 0 0
579 4 1 0.298246 0.263678 0.805376 0 0 0
580 4 2 0.277141 0.272791 0.806532 0 0 0
581 4 2 0.290678 0.285294 0.803358 0 0 0
582 4 2 0.294658 0.25297 0.802626 0 0 0
583 4 2 0.308116 0.265583 0.799541 0 0 0
584 4 1 0.301196 0.264456 0.821433 0 0 0
585 4 1 0.312941 0.254015 0.825932 0 0 0
586 4 2 0.291432 0.262125 0.827292 0 0 0
587 4 2 0.304379 0.275272 0.824255 0 0 0
588 4 2 0.309887 0.243189 0.823008 0 0 0
589 4 2 0.322687 0.256515 0.820114 0 0 0
590 4 1 0.315895 0.254666 0.841996 0 0 0
591 4 1 0.32871 0.245416 0.84617 0 0 0
592 4 2 0.306458 0.251192 0.847824 0 0 0
593 4 2 0.317968 0.265671 0.845107 0 0 0
594 4 2 0.326971 0.234464 0.842687 0 0 0
595 4 2 0.338148 0.249314 0.840619 0 0 0
596 4 1 0.331425 0.245607 0.862289 0 0 0
597 4 1 0.345683 0.238581 0.866106 0 0 0
598 4 2 0.322732 0.240152 0.867744 0 0 0
599 4 2 0.331479 0.256589 0.866096 0 0 0
600 4 2 0.34612 0.227848 0.861666 0 0 0
601 4 2 0.354294 0.244659 0.861208 0 0 0
602 4 1 0.348036 0.237851 0.882264 0 0 0
603 4 1 0.363452 0.233893 0.885992 0 0 0
604 4 2 0.340743 0.230061 0.88687 0 0 0
605 4 2 0.345511 0.248141 0.887044 0 0 0
606 4 2 0.366414 0.224021 0.880621 0 0 0
607 4 2 0.370539 0.242211 0.882033 0 0 0
608 4 1 0.365549 0.232139 0.902103 0 0 0
609 4 1 0.381353 0.23119 0.906162 0 0 0
610 4 2 0.35999 0.22257 0.905655 0 0 0
611 4 2 0.360746 0.241148 0.90766 0 0 0
612 4 2 0.386461 0.222618 0.900203 0 0 0
613 4 2 0.386636 0.241094 0.903145 0 0 0
614 4 1 0.383349 0.228603 0.922175 0 0 0
615 4 1 0.398938 0.230316 0.926769 0 0 0
616 4 2 0.379654 0.217897 0.924788 0 0 0
617 4 2 0.376776 0.236071 0.928185 0 0 0
618 4 2 0.405674 0.223272 0.920438 0 0 0
619 4 2 0.402379 0.241209 0.924623 0 0 0
620 4 1 0.401003 0.226972 0.942635 0 0 0
621 4 1 0.416211 0.230265 0.947638 0 0 0
622 4 2 0.398633 0.215745 0.944483 0 0 0
623 4 2 0.393461 0.23314 0.948972 0 0 0
624 4 2 0.423826 0.225098 0.940538 0 0 0
625 4 2 0.418101 0.241712 0.94694 0 0 0
626 4 1 0.418854 0.225161 0.962941 0 0 0
627 4 1 0.433795 0.229219 0.968196 0 0 0
628 4 2 0.4176 0.213613 0.963334 0 0 0
629 4 2 0.410874 0.229695 0.970073 0 0 0
630 4 2 0.441633 0.2264 0.96009 0 0 0
631 4 2 0.434405 0.240735 0.969647 0 0 0
632 4 1 0.43763 0.221648 0.982169 0 0 0
633 4 1 0.452614 0.225641 0.987362 0 0 0
634 4 2 0.437069 0.210161 0.980491 0 0 0
635 4 2 0.429833 0.224284 0.990376 0 0 0
636 4 2 0.460108 0.224774 0.97852 0 0 0
637 4 2 0.452727 0.236736 0.990824 0 0 0
638 4 1 0.457572 0.215947 0.999555 0 0 0
639 4 1 0.472834 0.219337 0.00435101 0 0 1
640 4 2 0.457057 0.204885 0.996025 0 0 0
641 4 2 0.450336 0.217004 0.00858858 0 0 1
642 4 2 0.479816 0.219495 0.995061 0 0 0
643 4 2 0.473206 0.229946 0.00908514 0 0 1
644 4 1 0.478341 0.208265 0.0150513 0 0 1
645 4 1 0.49394 0.210771 0.0192603 0 0 1
646 4 2 0.477347 0.197676 0.0103629 0 0 1
647 4 2 0.471692 0.208417 0.0245836 0 0 1
648 4 2 0.500371 0.211788 0.00963193 0 0 1
649 4 2 0.4949 0.220769 0.0251104 0 0 1
650 4 1 0.4997 0.198419 0.028304 0 0 1
651 4 1 0.515572 0.200065 0.0318782 0 0 1
652 4 2 0.498127 0.188477 0.0224926 0 0 1
653 4 2 0.49359 0.197572 0.0381547 0 0 1
654 4 2 0.521426 0.202792 0.0222147 0 0 1
655 4 2 0.517045 0.208823 0.0393764 0 0 1
656 4 1 0.521712 0.186234 0.0380914 0 0 1
657 4 1 0.537722 0.187301 0.0412657 0 0 1
658 4 2 0.519895 0.17763 0.0304909 0 0 1
659 4 2 0.516038 0.183398 0.0478308 0 0 1
660 4 2 0.543095 0.192573 0.0324098 0 0 1
661 4 2 0.539423 0.193869 0.050703 0 0 1
662 4 1 0.54437 0.172507 0.0433827 0 0 1
663 4 1 0.56034 0.173279 0.0468183 0 0 1
664 4 2 0.542835 0.166355 0.0336418 0 0 1
665 4 2 0.538839 0.16683 0.0518842 0 0 1
666 4 2 0.565357 0.181283 0.0400462 0 0 1
667 4 2 0.561796 0.176695 0.0578322 0 0 1
668 4 1 0.567741 0.158908 0.0443062 0 0 1
669 4 1 0.583827 0.15949 0.047241 0 0 1
670 4 2 0.566161 0.155909 0.0331885 0 0 1
671 4 2 0.562756 0.150591 0.0507146 0 0 1
672 4 2 0.589225 0.1528 0.039418 0 0 1
673 4 2 0.587791 0.170296 0.0456304 0 0 1
674 4 1 0.587931 0.154211 0.0621426 0 0 1
675 4 1 0.60407 0.155325 0.0644906 0 0 1
676 4 2 0.584598 0.143138 0.0633124 0 0 1
677 4 2 0.582322 0.160365 0.0702523 0 0 1
678 4 2 0.609599 0.150128 0.0556861 0 0 1
679 4 2 0.607238 0.166507 0.0643316 0 0 1
680 4 1 0.608809 0.148449 0.0785337 0 0 1
681 4 1 0.624923 0.149996 0.0808496 0 0 1
682 4 2 0.605983 0.137176 0.0784144 0 0 1
683 4 2 0.603108 0.15331 0.0874199 0 0 1
684 4 2 0.630564 0.145505 0.0717335 0 0 1
685 4 2 0.627705 0.161269 0.0813646 0 0 1
686 4 1 0.629876 0.142506 0.0945095 0 0 1
687 4 1 0.646024 0.14383 0.0967191 0 0 1
688 4 2 0.626967 0.131265 0.0939924 0 0 1
689 4 2 0.624325 0.147061 0.103649 0 0 1
690 4 2 0.651559 0.139404 0.087507 0 0 1
691 4 2 0.648939 0.155062 0.0973799 0 0 1
692 4 1 0.650979 0.1361 0.110252 0 0 1
693 4 1 0.667152 0.137245 0.11238 0 0 1
694 4 2 0.647948 0.124897 0.109626 0 0 1
695 4 2 0.645539 0.140604 0.119484 0 0 1
696 4 2 0.67258 0.132791 0.103119 0 0 1
697 4 2 0.670182 0.148446 0.113045 0 0 1
698 4 1 0.672141 0.129449 0.125861 0 0 1
699 4 1 0.688323 0.130592 0.127884 0 0 1
700 4 2 0.669099 0.118251 0.125206 0 0 1
701 4 2 0.666751 0.133923 0.135136 0 0 1
702 4 2 0.693691 0.126042 0.118634 0 0 1
703 4 2 0.691362 0.141798 0.128412 0 0 1
704 4 1 0.69342 0.122944 0.141409 0 0 1
705 4 1 0.70963 0.124082 0.143194 0 0 1
706 4 2 0.690346 0.111745 0.140934 0 0 1
707 4 2 0.688159 0.127559 0.150689 0 0 1
708 4 2 0.714841 0.119385 0.133928 0 0 1
709 4 2 0.712696 0.13529 0.143489 0 0 1
710 4 1 0.714995 0.116648 0.156737 0 0 1
711 4 1 0.731244 0.117839 0.15807 0 0 1
712 4 2 0.71191 0.105444 0.156502 0 0 1
713 4 2 0.709957 0.121414 0.166064 0 0 1
714 4 2 0.736183 0.113159 0.148647 0 0 1
715 4 2 0.734271 0.129058 0.158303 0 0 1
716 4 1 0.737093 0.110383 0.171376 0 0 1
717 4 1 0.753363 0.111824 0.17226 0 0 1
718 4 2 0.734164 0.099138 0.171115 0 0 1
719 4 2 0.732233 0.114974 0.180884 0 0 1
720 4 2 0.758151 0.107584 0.162554 0 0 1
721 4 2 0.756192 0.123083 0.172818 0 0 1
722 4 1 0.759608 0.104027 0.185184 0 0 1
723 4 1 0.775816 0.105719 0.186017 0 0 1
724 4 2 0.75687 0.0927421 0.184684 0 0 1
725 4 2 0.754816 0.108166 0.194931 0 0 1
726 4 2 0.780925 0.101358 0.176531 0 0 1
727 4 2 0.778751 0.116927 0.186951 0 0 1